LAMMPS data file.

16 atoms
32 bonds
108 angles
0 dihedrals
0 impropers
1 atom types
2 bond types
108 angle types
0 dihedral types
0 improper types
-2.100000 2.100000 xlo xhi
-2.100000 2.100000 ylo yhi
-0.100000 0.100000 zlo zhi
0.0 0.0 0.0 xy xz yz

Masses

1 1.0

Atoms # ['atomID', 'moleculeID', 'atomType', 'charge', 'x', 'y', 'z']

1 1 1 0.000000 -1.000000 0.000000 0.000000
2 1 1 0.000000 -2.000000 1.000000 0.000000
3 1 1 0.000000 -1.000000 2.000000 0.000000
4 1 1 0.000000 0.000000 1.000000 0.000000
5 1 1 0.000000 -1.000000 1.000000 0.000000
6 1 1 0.000000 -2.000000 -1.000000 0.000000
7 1 1 0.000000 -1.000000 -2.000000 0.000000
8 1 1 0.000000 0.000000 -1.000000 0.000000
9 1 1 0.000000 -1.000000 -1.000000 0.000000
10 1 1 0.000000 1.000000 0.000000 0.000000
11 1 1 0.000000 1.000000 2.000000 0.000000
12 1 1 0.000000 2.000000 1.000000 0.000000
13 1 1 0.000000 1.000000 1.000000 0.000000
14 1 1 0.000000 1.000000 -2.000000 0.000000
15 1 1 0.000000 2.000000 -1.000000 0.000000
16 1 1 0.000000 1.000000 -1.000000 0.000000

Bonds # ['ID', 'type', 'atom1', 'atom2']

1 1 1 2
2 1 2 3
3 1 3 4
4 1 1 4
5 2 1 5
6 1 2 5
7 1 3 5
8 1 4 5
9 1 6 7
10 1 7 8
11 1 6 9
12 1 7 9
13 1 8 9
14 1 6 1
15 1 1 8
16 2 9 1
17 1 11 12
18 1 10 12
19 1 10 13
20 1 11 13
21 1 12 13
22 1 14 15
23 1 14 16
24 1 15 16
25 1 10 15
26 1 16 10
27 1 11 4
28 1 13 4
29 1 4 10
30 1 10 8
31 1 16 8
32 1 8 14

Angles

1 1 2 1 4
2 2 2 1 5
3 3 2 1 6
4 4 2 1 8
5 5 2 1 9
6 6 4 1 5
7 7 4 1 6
8 8 4 1 8
9 9 4 1 9
10 10 5 1 6
11 11 5 1 8
12 12 5 1 9
13 13 6 1 8
14 14 6 1 9
15 15 8 1 9
16 16 1 2 3
17 17 1 2 5
18 18 3 2 5
19 19 2 3 4
20 20 2 3 5
21 21 4 3 5
22 22 1 4 3
23 23 1 4 5
24 24 1 4 10
25 25 1 4 11
26 26 1 4 13
27 27 3 4 5
28 28 3 4 10
29 29 3 4 11
30 30 3 4 13
31 31 5 4 10
32 32 5 4 11
33 33 5 4 13
34 34 10 4 11
35 35 10 4 13
36 36 11 4 13
37 37 1 5 2
38 38 1 5 3
39 39 1 5 4
40 40 2 5 3
41 41 2 5 4
42 42 3 5 4
43 43 1 6 7
44 44 1 6 9
45 45 7 6 9
46 46 6 7 8
47 47 6 7 9
48 48 8 7 9
49 49 1 8 7
50 50 1 8 9
51 51 1 8 10
52 52 1 8 14
53 53 1 8 16
54 54 7 8 9
55 55 7 8 10
56 56 7 8 14
57 57 7 8 16
58 58 9 8 10
59 59 9 8 14
60 60 9 8 16
61 61 10 8 14
62 62 10 8 16
63 63 14 8 16
64 64 1 9 6
65 65 1 9 7
66 66 1 9 8
67 67 6 9 7
68 68 6 9 8
69 69 7 9 8
70 70 4 11 12
71 71 4 11 13
72 72 12 11 13
73 73 10 12 11
74 74 10 12 13
75 75 11 12 13
76 76 4 10 8
77 77 4 10 12
78 78 4 10 13
79 79 4 10 15
80 80 4 10 16
81 81 8 10 12
82 82 8 10 13
83 83 8 10 15
84 84 8 10 16
85 85 12 10 13
86 86 12 10 15
87 87 12 10 16
88 88 13 10 15
89 89 13 10 16
90 90 15 10 16
91 91 4 13 10
92 92 4 13 11
93 93 4 13 12
94 94 10 13 11
95 95 10 13 12
96 96 11 13 12
97 97 8 14 15
98 98 8 14 16
99 99 15 14 16
100 100 10 15 14
101 101 10 15 16
102 102 14 15 16
103 103 8 16 10
104 104 8 16 14
105 105 8 16 15
106 106 10 16 14
107 107 10 16 15
108 108 14 16 15

Bond Coeffs # ['bondID', 'bondCoeff', 'd']

1 1 1.414214
2 0.5 1.000000

Angle Coeffs

1 0.01 90.000000
2 0.01 45.000000
3 0.01 90.000000
4 0.01 179.999999
5 0.01 135.000000
6 0.01 45.000000
7 0.01 179.999999
8 0.01 90.000000
9 0.01 135.000000
10 0.01 135.000000
11 0.01 135.000000
12 0.01 180.000000
13 0.01 90.000000
14 0.01 45.000000
15 0.01 45.000000
16 0.01 90.000000
17 0.01 45.000000
18 0.01 45.000000
19 0.01 90.000000
20 0.01 45.000000
21 0.01 45.000000
22 0.01 90.000000
23 0.01 45.000000
24 0.01 90.000000
25 0.01 179.999999
26 0.01 135.000000
27 0.01 45.000000
28 0.01 179.999999
29 0.01 90.000000
30 0.01 135.000000
31 0.01 135.000000
32 0.01 135.000000
33 0.01 180.000000
34 0.01 90.000000
35 0.01 45.000000
36 0.01 45.000000
37 0.01 90.000000
38 0.01 180.000000
39 0.01 90.000000
40 0.01 90.000000
41 0.01 180.000000
42 0.01 90.000000
43 0.01 90.000000
44 0.01 45.000000
45 0.01 45.000000
46 0.01 90.000000
47 0.01 45.000000
48 0.01 45.000000
49 0.01 90.000000
50 0.01 45.000000
51 0.01 90.000000
52 0.01 179.999999
53 0.01 135.000000
54 0.01 45.000000
55 0.01 179.999999
56 0.01 90.000000
57 0.01 135.000000
58 0.01 135.000000
59 0.01 135.000000
60 0.01 180.000000
61 0.01 90.000000
62 0.01 45.000000
63 0.01 45.000000
64 0.01 90.000000
65 0.01 180.000000
66 0.01 90.000000
67 0.01 90.000000
68 0.01 180.000000
69 0.01 90.000000
70 0.01 90.000000
71 0.01 45.000000
72 0.01 45.000000
73 0.01 90.000000
74 0.01 45.000000
75 0.01 45.000000
76 0.01 90.000000
77 0.01 90.000000
78 0.01 45.000000
79 0.01 179.999999
80 0.01 135.000000
81 0.01 179.999999
82 0.01 135.000000
83 0.01 90.000000
84 0.01 45.000000
85 0.01 45.000000
86 0.01 90.000000
87 0.01 135.000000
88 0.01 135.000000
89 0.01 180.000000
90 0.01 45.000000
91 0.01 90.000000
92 0.01 90.000000
93 0.01 180.000000
94 0.01 180.000000
95 0.01 90.000000
96 0.01 90.000000
97 0.01 90.000000
98 0.01 45.000000
99 0.01 45.000000
100 0.01 90.000000
101 0.01 45.000000
102 0.01 45.000000
103 0.01 90.000000
104 0.01 90.000000
105 0.01 180.000000
106 0.01 180.000000
107 0.01 90.000000
108 0.01 90.000000
